Title: test opamp acdc
Date: Tue May  5 17:28:22  2026
Plotname: Operating Point
Flags: real
No. Variables: 957
No. Points: 1
Variables:
	0	v(vdd)	voltage
	1	gmbs_m0	notype
	2	gm_m0	notype
	3	gds_m0	notype
	4	vdsat_m0	notype
	5	vth_m0	notype
	6	i(id_m0)	current
	7	ibd_m0	notype
	8	ibs_m0	notype
	9	gbd_m0	notype
	10	gbs_m0	notype
	11	isub_m0	notype
	12	igidl_m0	notype
	13	igisl_m0	notype
	14	igs_m0	notype
	15	igd_m0	notype
	16	igb_m0	notype
	17	igcs_m0	notype
	18	vbs_m0	notype
	19	vgs_m0	notype
	20	vds_m0	notype
	21	cgg_m0	notype
	22	cgs_m0	notype
	23	cgd_m0	notype
	24	cbg_m0	notype
	25	cbd_m0	notype
	26	cbs_m0	notype
	27	cdg_m0	notype
	28	cdd_m0	notype
	29	cds_m0	notype
	30	csg_m0	notype
	31	csd_m0	notype
	32	css_m0	notype
	33	cgb_m0	notype
	34	cdb_m0	notype
	35	csb_m0	notype
	36	cbb_m0	notype
	37	capbd_m0	notype
	38	capbs_m0	notype
	39	gmbs_m1	notype
	40	gm_m1	notype
	41	gds_m1	notype
	42	vdsat_m1	notype
	43	vth_m1	notype
	44	i(id_m1)	current
	45	ibd_m1	notype
	46	ibs_m1	notype
	47	gbd_m1	notype
	48	gbs_m1	notype
	49	isub_m1	notype
	50	igidl_m1	notype
	51	igisl_m1	notype
	52	igs_m1	notype
	53	igd_m1	notype
	54	igb_m1	notype
	55	igcs_m1	notype
	56	vbs_m1	notype
	57	vgs_m1	notype
	58	vds_m1	notype
	59	cgg_m1	notype
	60	cgs_m1	notype
	61	cgd_m1	notype
	62	cbg_m1	notype
	63	cbd_m1	notype
	64	cbs_m1	notype
	65	cdg_m1	notype
	66	cdd_m1	notype
	67	cds_m1	notype
	68	csg_m1	notype
	69	csd_m1	notype
	70	css_m1	notype
	71	cgb_m1	notype
	72	cdb_m1	notype
	73	csb_m1	notype
	74	cbb_m1	notype
	75	capbd_m1	notype
	76	capbs_m1	notype
	77	gmbs_m2	notype
	78	gm_m2	notype
	79	gds_m2	notype
	80	vdsat_m2	notype
	81	vth_m2	notype
	82	i(id_m2)	current
	83	ibd_m2	notype
	84	ibs_m2	notype
	85	gbd_m2	notype
	86	gbs_m2	notype
	87	isub_m2	notype
	88	igidl_m2	notype
	89	igisl_m2	notype
	90	igs_m2	notype
	91	igd_m2	notype
	92	igb_m2	notype
	93	igcs_m2	notype
	94	vbs_m2	notype
	95	vgs_m2	notype
	96	vds_m2	notype
	97	cgg_m2	notype
	98	cgs_m2	notype
	99	cgd_m2	notype
	100	cbg_m2	notype
	101	cbd_m2	notype
	102	cbs_m2	notype
	103	cdg_m2	notype
	104	cdd_m2	notype
	105	cds_m2	notype
	106	csg_m2	notype
	107	csd_m2	notype
	108	css_m2	notype
	109	cgb_m2	notype
	110	cdb_m2	notype
	111	csb_m2	notype
	112	cbb_m2	notype
	113	capbd_m2	notype
	114	capbs_m2	notype
	115	gmbs_m3	notype
	116	gm_m3	notype
	117	gds_m3	notype
	118	vdsat_m3	notype
	119	vth_m3	notype
	120	i(id_m3)	current
	121	ibd_m3	notype
	122	ibs_m3	notype
	123	gbd_m3	notype
	124	gbs_m3	notype
	125	isub_m3	notype
	126	igidl_m3	notype
	127	igisl_m3	notype
	128	igs_m3	notype
	129	igd_m3	notype
	130	igb_m3	notype
	131	igcs_m3	notype
	132	vbs_m3	notype
	133	vgs_m3	notype
	134	vds_m3	notype
	135	cgg_m3	notype
	136	cgs_m3	notype
	137	cgd_m3	notype
	138	cbg_m3	notype
	139	cbd_m3	notype
	140	cbs_m3	notype
	141	cdg_m3	notype
	142	cdd_m3	notype
	143	cds_m3	notype
	144	csg_m3	notype
	145	csd_m3	notype
	146	css_m3	notype
	147	cgb_m3	notype
	148	cdb_m3	notype
	149	csb_m3	notype
	150	cbb_m3	notype
	151	capbd_m3	notype
	152	capbs_m3	notype
	153	gmbs_m4	notype
	154	gm_m4	notype
	155	gds_m4	notype
	156	vdsat_m4	notype
	157	vth_m4	notype
	158	i(id_m4)	current
	159	ibd_m4	notype
	160	ibs_m4	notype
	161	gbd_m4	notype
	162	gbs_m4	notype
	163	isub_m4	notype
	164	igidl_m4	notype
	165	igisl_m4	notype
	166	igs_m4	notype
	167	igd_m4	notype
	168	igb_m4	notype
	169	igcs_m4	notype
	170	vbs_m4	notype
	171	vgs_m4	notype
	172	vds_m4	notype
	173	cgg_m4	notype
	174	cgs_m4	notype
	175	cgd_m4	notype
	176	cbg_m4	notype
	177	cbd_m4	notype
	178	cbs_m4	notype
	179	cdg_m4	notype
	180	cdd_m4	notype
	181	cds_m4	notype
	182	csg_m4	notype
	183	csd_m4	notype
	184	css_m4	notype
	185	cgb_m4	notype
	186	cdb_m4	notype
	187	csb_m4	notype
	188	cbb_m4	notype
	189	capbd_m4	notype
	190	capbs_m4	notype
	191	gmbs_m5	notype
	192	gm_m5	notype
	193	gds_m5	notype
	194	vdsat_m5	notype
	195	vth_m5	notype
	196	i(id_m5)	current
	197	ibd_m5	notype
	198	ibs_m5	notype
	199	gbd_m5	notype
	200	gbs_m5	notype
	201	isub_m5	notype
	202	igidl_m5	notype
	203	igisl_m5	notype
	204	igs_m5	notype
	205	igd_m5	notype
	206	igb_m5	notype
	207	igcs_m5	notype
	208	vbs_m5	notype
	209	vgs_m5	notype
	210	vds_m5	notype
	211	cgg_m5	notype
	212	cgs_m5	notype
	213	cgd_m5	notype
	214	cbg_m5	notype
	215	cbd_m5	notype
	216	cbs_m5	notype
	217	cdg_m5	notype
	218	cdd_m5	notype
	219	cds_m5	notype
	220	csg_m5	notype
	221	csd_m5	notype
	222	css_m5	notype
	223	cgb_m5	notype
	224	cdb_m5	notype
	225	csb_m5	notype
	226	cbb_m5	notype
	227	capbd_m5	notype
	228	capbs_m5	notype
	229	gmbs_m6	notype
	230	gm_m6	notype
	231	gds_m6	notype
	232	vdsat_m6	notype
	233	vth_m6	notype
	234	i(id_m6)	current
	235	ibd_m6	notype
	236	ibs_m6	notype
	237	gbd_m6	notype
	238	gbs_m6	notype
	239	isub_m6	notype
	240	igidl_m6	notype
	241	igisl_m6	notype
	242	igs_m6	notype
	243	igd_m6	notype
	244	igb_m6	notype
	245	igcs_m6	notype
	246	vbs_m6	notype
	247	vgs_m6	notype
	248	vds_m6	notype
	249	cgg_m6	notype
	250	cgs_m6	notype
	251	cgd_m6	notype
	252	cbg_m6	notype
	253	cbd_m6	notype
	254	cbs_m6	notype
	255	cdg_m6	notype
	256	cdd_m6	notype
	257	cds_m6	notype
	258	csg_m6	notype
	259	csd_m6	notype
	260	css_m6	notype
	261	cgb_m6	notype
	262	cdb_m6	notype
	263	csb_m6	notype
	264	cbb_m6	notype
	265	capbd_m6	notype
	266	capbs_m6	notype
	267	gmbs_m7	notype
	268	gm_m7	notype
	269	gds_m7	notype
	270	vdsat_m7	notype
	271	vth_m7	notype
	272	i(id_m7)	current
	273	ibd_m7	notype
	274	ibs_m7	notype
	275	gbd_m7	notype
	276	gbs_m7	notype
	277	isub_m7	notype
	278	igidl_m7	notype
	279	igisl_m7	notype
	280	igs_m7	notype
	281	igd_m7	notype
	282	igb_m7	notype
	283	igcs_m7	notype
	284	vbs_m7	notype
	285	vgs_m7	notype
	286	vds_m7	notype
	287	cgg_m7	notype
	288	cgs_m7	notype
	289	cgd_m7	notype
	290	cbg_m7	notype
	291	cbd_m7	notype
	292	cbs_m7	notype
	293	cdg_m7	notype
	294	cdd_m7	notype
	295	cds_m7	notype
	296	csg_m7	notype
	297	csd_m7	notype
	298	css_m7	notype
	299	cgb_m7	notype
	300	cdb_m7	notype
	301	csb_m7	notype
	302	cbb_m7	notype
	303	capbd_m7	notype
	304	capbs_m7	notype
	305	gmbs_m8	notype
	306	gm_m8	notype
	307	gds_m8	notype
	308	vdsat_m8	notype
	309	vth_m8	notype
	310	i(id_m8)	current
	311	ibd_m8	notype
	312	ibs_m8	notype
	313	gbd_m8	notype
	314	gbs_m8	notype
	315	isub_m8	notype
	316	igidl_m8	notype
	317	igisl_m8	notype
	318	igs_m8	notype
	319	igd_m8	notype
	320	igb_m8	notype
	321	igcs_m8	notype
	322	vbs_m8	notype
	323	vgs_m8	notype
	324	vds_m8	notype
	325	cgg_m8	notype
	326	cgs_m8	notype
	327	cgd_m8	notype
	328	cbg_m8	notype
	329	cbd_m8	notype
	330	cbs_m8	notype
	331	cdg_m8	notype
	332	cdd_m8	notype
	333	cds_m8	notype
	334	csg_m8	notype
	335	csd_m8	notype
	336	css_m8	notype
	337	cgb_m8	notype
	338	cdb_m8	notype
	339	csb_m8	notype
	340	cbb_m8	notype
	341	capbd_m8	notype
	342	capbs_m8	notype
	343	gmbs_m9	notype
	344	gm_m9	notype
	345	gds_m9	notype
	346	vdsat_m9	notype
	347	vth_m9	notype
	348	i(id_m9)	current
	349	ibd_m9	notype
	350	ibs_m9	notype
	351	gbd_m9	notype
	352	gbs_m9	notype
	353	isub_m9	notype
	354	igidl_m9	notype
	355	igisl_m9	notype
	356	igs_m9	notype
	357	igd_m9	notype
	358	igb_m9	notype
	359	igcs_m9	notype
	360	vbs_m9	notype
	361	vgs_m9	notype
	362	vds_m9	notype
	363	cgg_m9	notype
	364	cgs_m9	notype
	365	cgd_m9	notype
	366	cbg_m9	notype
	367	cbd_m9	notype
	368	cbs_m9	notype
	369	cdg_m9	notype
	370	cdd_m9	notype
	371	cds_m9	notype
	372	csg_m9	notype
	373	csd_m9	notype
	374	css_m9	notype
	375	cgb_m9	notype
	376	cdb_m9	notype
	377	csb_m9	notype
	378	cbb_m9	notype
	379	capbd_m9	notype
	380	capbs_m9	notype
	381	gmbs_m10	notype
	382	gm_m10	notype
	383	gds_m10	notype
	384	vdsat_m10	notype
	385	vth_m10	notype
	386	i(id_m10)	current
	387	ibd_m10	notype
	388	ibs_m10	notype
	389	gbd_m10	notype
	390	gbs_m10	notype
	391	isub_m10	notype
	392	igidl_m10	notype
	393	igisl_m10	notype
	394	igs_m10	notype
	395	igd_m10	notype
	396	igb_m10	notype
	397	igcs_m10	notype
	398	vbs_m10	notype
	399	vgs_m10	notype
	400	vds_m10	notype
	401	cgg_m10	notype
	402	cgs_m10	notype
	403	cgd_m10	notype
	404	cbg_m10	notype
	405	cbd_m10	notype
	406	cbs_m10	notype
	407	cdg_m10	notype
	408	cdd_m10	notype
	409	cds_m10	notype
	410	csg_m10	notype
	411	csd_m10	notype
	412	css_m10	notype
	413	cgb_m10	notype
	414	cdb_m10	notype
	415	csb_m10	notype
	416	cbb_m10	notype
	417	capbd_m10	notype
	418	capbs_m10	notype
	419	gmbs_m11	notype
	420	gm_m11	notype
	421	gds_m11	notype
	422	vdsat_m11	notype
	423	vth_m11	notype
	424	i(id_m11)	current
	425	ibd_m11	notype
	426	ibs_m11	notype
	427	gbd_m11	notype
	428	gbs_m11	notype
	429	isub_m11	notype
	430	igidl_m11	notype
	431	igisl_m11	notype
	432	igs_m11	notype
	433	igd_m11	notype
	434	igb_m11	notype
	435	igcs_m11	notype
	436	vbs_m11	notype
	437	vgs_m11	notype
	438	vds_m11	notype
	439	cgg_m11	notype
	440	cgs_m11	notype
	441	cgd_m11	notype
	442	cbg_m11	notype
	443	cbd_m11	notype
	444	cbs_m11	notype
	445	cdg_m11	notype
	446	cdd_m11	notype
	447	cds_m11	notype
	448	csg_m11	notype
	449	csd_m11	notype
	450	css_m11	notype
	451	cgb_m11	notype
	452	cdb_m11	notype
	453	csb_m11	notype
	454	cbb_m11	notype
	455	capbd_m11	notype
	456	capbs_m11	notype
	457	gmbs_m12	notype
	458	gm_m12	notype
	459	gds_m12	notype
	460	vdsat_m12	notype
	461	vth_m12	notype
	462	i(id_m12)	current
	463	ibd_m12	notype
	464	ibs_m12	notype
	465	gbd_m12	notype
	466	gbs_m12	notype
	467	isub_m12	notype
	468	igidl_m12	notype
	469	igisl_m12	notype
	470	igs_m12	notype
	471	igd_m12	notype
	472	igb_m12	notype
	473	igcs_m12	notype
	474	vbs_m12	notype
	475	vgs_m12	notype
	476	vds_m12	notype
	477	cgg_m12	notype
	478	cgs_m12	notype
	479	cgd_m12	notype
	480	cbg_m12	notype
	481	cbd_m12	notype
	482	cbs_m12	notype
	483	cdg_m12	notype
	484	cdd_m12	notype
	485	cds_m12	notype
	486	csg_m12	notype
	487	csd_m12	notype
	488	css_m12	notype
	489	cgb_m12	notype
	490	cdb_m12	notype
	491	csb_m12	notype
	492	cbb_m12	notype
	493	capbd_m12	notype
	494	capbs_m12	notype
	495	gmbs_m13	notype
	496	gm_m13	notype
	497	gds_m13	notype
	498	vdsat_m13	notype
	499	vth_m13	notype
	500	i(id_m13)	current
	501	ibd_m13	notype
	502	ibs_m13	notype
	503	gbd_m13	notype
	504	gbs_m13	notype
	505	isub_m13	notype
	506	igidl_m13	notype
	507	igisl_m13	notype
	508	igs_m13	notype
	509	igd_m13	notype
	510	igb_m13	notype
	511	igcs_m13	notype
	512	vbs_m13	notype
	513	vgs_m13	notype
	514	vds_m13	notype
	515	cgg_m13	notype
	516	cgs_m13	notype
	517	cgd_m13	notype
	518	cbg_m13	notype
	519	cbd_m13	notype
	520	cbs_m13	notype
	521	cdg_m13	notype
	522	cdd_m13	notype
	523	cds_m13	notype
	524	csg_m13	notype
	525	csd_m13	notype
	526	css_m13	notype
	527	cgb_m13	notype
	528	cdb_m13	notype
	529	csb_m13	notype
	530	cbb_m13	notype
	531	capbd_m13	notype
	532	capbs_m13	notype
	533	gmbs_m14	notype
	534	gm_m14	notype
	535	gds_m14	notype
	536	vdsat_m14	notype
	537	vth_m14	notype
	538	i(id_m14)	current
	539	ibd_m14	notype
	540	ibs_m14	notype
	541	gbd_m14	notype
	542	gbs_m14	notype
	543	isub_m14	notype
	544	igidl_m14	notype
	545	igisl_m14	notype
	546	igs_m14	notype
	547	igd_m14	notype
	548	igb_m14	notype
	549	igcs_m14	notype
	550	vbs_m14	notype
	551	vgs_m14	notype
	552	vds_m14	notype
	553	cgg_m14	notype
	554	cgs_m14	notype
	555	cgd_m14	notype
	556	cbg_m14	notype
	557	cbd_m14	notype
	558	cbs_m14	notype
	559	cdg_m14	notype
	560	cdd_m14	notype
	561	cds_m14	notype
	562	csg_m14	notype
	563	csd_m14	notype
	564	css_m14	notype
	565	cgb_m14	notype
	566	cdb_m14	notype
	567	csb_m14	notype
	568	cbb_m14	notype
	569	capbd_m14	notype
	570	capbs_m14	notype
	571	gmbs_m15	notype
	572	gm_m15	notype
	573	gds_m15	notype
	574	vdsat_m15	notype
	575	vth_m15	notype
	576	i(id_m15)	current
	577	ibd_m15	notype
	578	ibs_m15	notype
	579	gbd_m15	notype
	580	gbs_m15	notype
	581	isub_m15	notype
	582	igidl_m15	notype
	583	igisl_m15	notype
	584	igs_m15	notype
	585	igd_m15	notype
	586	igb_m15	notype
	587	igcs_m15	notype
	588	vbs_m15	notype
	589	vgs_m15	notype
	590	vds_m15	notype
	591	cgg_m15	notype
	592	cgs_m15	notype
	593	cgd_m15	notype
	594	cbg_m15	notype
	595	cbd_m15	notype
	596	cbs_m15	notype
	597	cdg_m15	notype
	598	cdd_m15	notype
	599	cds_m15	notype
	600	csg_m15	notype
	601	csd_m15	notype
	602	css_m15	notype
	603	cgb_m15	notype
	604	cdb_m15	notype
	605	csb_m15	notype
	606	cbb_m15	notype
	607	capbd_m15	notype
	608	capbs_m15	notype
	609	gmbs_m16	notype
	610	gm_m16	notype
	611	gds_m16	notype
	612	vdsat_m16	notype
	613	vth_m16	notype
	614	i(id_m16)	current
	615	ibd_m16	notype
	616	ibs_m16	notype
	617	gbd_m16	notype
	618	gbs_m16	notype
	619	isub_m16	notype
	620	igidl_m16	notype
	621	igisl_m16	notype
	622	igs_m16	notype
	623	igd_m16	notype
	624	igb_m16	notype
	625	igcs_m16	notype
	626	vbs_m16	notype
	627	vgs_m16	notype
	628	vds_m16	notype
	629	cgg_m16	notype
	630	cgs_m16	notype
	631	cgd_m16	notype
	632	cbg_m16	notype
	633	cbd_m16	notype
	634	cbs_m16	notype
	635	cdg_m16	notype
	636	cdd_m16	notype
	637	cds_m16	notype
	638	csg_m16	notype
	639	csd_m16	notype
	640	css_m16	notype
	641	cgb_m16	notype
	642	cdb_m16	notype
	643	csb_m16	notype
	644	cbb_m16	notype
	645	capbd_m16	notype
	646	capbs_m16	notype
	647	gmbs_m17	notype
	648	gm_m17	notype
	649	gds_m17	notype
	650	vdsat_m17	notype
	651	vth_m17	notype
	652	i(id_m17)	current
	653	ibd_m17	notype
	654	ibs_m17	notype
	655	gbd_m17	notype
	656	gbs_m17	notype
	657	isub_m17	notype
	658	igidl_m17	notype
	659	igisl_m17	notype
	660	igs_m17	notype
	661	igd_m17	notype
	662	igb_m17	notype
	663	igcs_m17	notype
	664	vbs_m17	notype
	665	vgs_m17	notype
	666	vds_m17	notype
	667	cgg_m17	notype
	668	cgs_m17	notype
	669	cgd_m17	notype
	670	cbg_m17	notype
	671	cbd_m17	notype
	672	cbs_m17	notype
	673	cdg_m17	notype
	674	cdd_m17	notype
	675	cds_m17	notype
	676	csg_m17	notype
	677	csd_m17	notype
	678	css_m17	notype
	679	cgb_m17	notype
	680	cdb_m17	notype
	681	csb_m17	notype
	682	cbb_m17	notype
	683	capbd_m17	notype
	684	capbs_m17	notype
	685	gmbs_m18	notype
	686	gm_m18	notype
	687	gds_m18	notype
	688	vdsat_m18	notype
	689	vth_m18	notype
	690	i(id_m18)	current
	691	ibd_m18	notype
	692	ibs_m18	notype
	693	gbd_m18	notype
	694	gbs_m18	notype
	695	isub_m18	notype
	696	igidl_m18	notype
	697	igisl_m18	notype
	698	igs_m18	notype
	699	igd_m18	notype
	700	igb_m18	notype
	701	igcs_m18	notype
	702	vbs_m18	notype
	703	vgs_m18	notype
	704	vds_m18	notype
	705	cgg_m18	notype
	706	cgs_m18	notype
	707	cgd_m18	notype
	708	cbg_m18	notype
	709	cbd_m18	notype
	710	cbs_m18	notype
	711	cdg_m18	notype
	712	cdd_m18	notype
	713	cds_m18	notype
	714	csg_m18	notype
	715	csd_m18	notype
	716	css_m18	notype
	717	cgb_m18	notype
	718	cdb_m18	notype
	719	csb_m18	notype
	720	cbb_m18	notype
	721	capbd_m18	notype
	722	capbs_m18	notype
	723	gmbs_m19	notype
	724	gm_m19	notype
	725	gds_m19	notype
	726	vdsat_m19	notype
	727	vth_m19	notype
	728	i(id_m19)	current
	729	ibd_m19	notype
	730	ibs_m19	notype
	731	gbd_m19	notype
	732	gbs_m19	notype
	733	isub_m19	notype
	734	igidl_m19	notype
	735	igisl_m19	notype
	736	igs_m19	notype
	737	igd_m19	notype
	738	igb_m19	notype
	739	igcs_m19	notype
	740	vbs_m19	notype
	741	vgs_m19	notype
	742	vds_m19	notype
	743	cgg_m19	notype
	744	cgs_m19	notype
	745	cgd_m19	notype
	746	cbg_m19	notype
	747	cbd_m19	notype
	748	cbs_m19	notype
	749	cdg_m19	notype
	750	cdd_m19	notype
	751	cds_m19	notype
	752	csg_m19	notype
	753	csd_m19	notype
	754	css_m19	notype
	755	cgb_m19	notype
	756	cdb_m19	notype
	757	csb_m19	notype
	758	cbb_m19	notype
	759	capbd_m19	notype
	760	capbs_m19	notype
	761	gmbs_m20	notype
	762	gm_m20	notype
	763	gds_m20	notype
	764	vdsat_m20	notype
	765	vth_m20	notype
	766	i(id_m20)	current
	767	ibd_m20	notype
	768	ibs_m20	notype
	769	gbd_m20	notype
	770	gbs_m20	notype
	771	isub_m20	notype
	772	igidl_m20	notype
	773	igisl_m20	notype
	774	igs_m20	notype
	775	igd_m20	notype
	776	igb_m20	notype
	777	igcs_m20	notype
	778	vbs_m20	notype
	779	vgs_m20	notype
	780	vds_m20	notype
	781	cgg_m20	notype
	782	cgs_m20	notype
	783	cgd_m20	notype
	784	cbg_m20	notype
	785	cbd_m20	notype
	786	cbs_m20	notype
	787	cdg_m20	notype
	788	cdd_m20	notype
	789	cds_m20	notype
	790	csg_m20	notype
	791	csd_m20	notype
	792	css_m20	notype
	793	cgb_m20	notype
	794	cdb_m20	notype
	795	csb_m20	notype
	796	cbb_m20	notype
	797	capbd_m20	notype
	798	capbs_m20	notype
	799	gmbs_m21	notype
	800	gm_m21	notype
	801	gds_m21	notype
	802	vdsat_m21	notype
	803	vth_m21	notype
	804	i(id_m21)	current
	805	ibd_m21	notype
	806	ibs_m21	notype
	807	gbd_m21	notype
	808	gbs_m21	notype
	809	isub_m21	notype
	810	igidl_m21	notype
	811	igisl_m21	notype
	812	igs_m21	notype
	813	igd_m21	notype
	814	igb_m21	notype
	815	igcs_m21	notype
	816	vbs_m21	notype
	817	vgs_m21	notype
	818	vds_m21	notype
	819	cgg_m21	notype
	820	cgs_m21	notype
	821	cgd_m21	notype
	822	cbg_m21	notype
	823	cbd_m21	notype
	824	cbs_m21	notype
	825	cdg_m21	notype
	826	cdd_m21	notype
	827	cds_m21	notype
	828	csg_m21	notype
	829	csd_m21	notype
	830	css_m21	notype
	831	cgb_m21	notype
	832	cdb_m21	notype
	833	csb_m21	notype
	834	cbb_m21	notype
	835	capbd_m21	notype
	836	capbs_m21	notype
	837	gmbs_m22	notype
	838	gm_m22	notype
	839	gds_m22	notype
	840	vdsat_m22	notype
	841	vth_m22	notype
	842	i(id_m22)	current
	843	ibd_m22	notype
	844	ibs_m22	notype
	845	gbd_m22	notype
	846	gbs_m22	notype
	847	isub_m22	notype
	848	igidl_m22	notype
	849	igisl_m22	notype
	850	igs_m22	notype
	851	igd_m22	notype
	852	igb_m22	notype
	853	igcs_m22	notype
	854	vbs_m22	notype
	855	vgs_m22	notype
	856	vds_m22	notype
	857	cgg_m22	notype
	858	cgs_m22	notype
	859	cgd_m22	notype
	860	cbg_m22	notype
	861	cbd_m22	notype
	862	cbs_m22	notype
	863	cdg_m22	notype
	864	cdd_m22	notype
	865	cds_m22	notype
	866	csg_m22	notype
	867	csd_m22	notype
	868	css_m22	notype
	869	cgb_m22	notype
	870	cdb_m22	notype
	871	csb_m22	notype
	872	cbb_m22	notype
	873	capbd_m22	notype
	874	capbs_m22	notype
	875	gmbs_m23	notype
	876	gm_m23	notype
	877	gds_m23	notype
	878	vdsat_m23	notype
	879	vth_m23	notype
	880	i(id_m23)	current
	881	ibd_m23	notype
	882	ibs_m23	notype
	883	gbd_m23	notype
	884	gbs_m23	notype
	885	isub_m23	notype
	886	igidl_m23	notype
	887	igisl_m23	notype
	888	igs_m23	notype
	889	igd_m23	notype
	890	igb_m23	notype
	891	igcs_m23	notype
	892	vbs_m23	notype
	893	vgs_m23	notype
	894	vds_m23	notype
	895	cgg_m23	notype
	896	cgs_m23	notype
	897	cgd_m23	notype
	898	cbg_m23	notype
	899	cbd_m23	notype
	900	cbs_m23	notype
	901	cdg_m23	notype
	902	cdd_m23	notype
	903	cds_m23	notype
	904	csg_m23	notype
	905	csd_m23	notype
	906	css_m23	notype
	907	cgb_m23	notype
	908	cdb_m23	notype
	909	csb_m23	notype
	910	cbb_m23	notype
	911	capbd_m23	notype
	912	capbs_m23	notype
	913	dc_ib	notype
	914	acmag_ib	notype
	915	acphase_ib	notype
	916	acreal_ib	notype
	917	acimag_ib	notype
	918	v_ib	notype
	919	p_ib	notype
	920	current_ib	capacitance
	921	capacitance_c0	notype
	922	cap_c0	notype
	923	c_c0	notype
	924	ic_c0	notype
	925	temp_c0	notype
	926	dtemp_c0	notype
	927	w_c0	notype
	928	l_c0	notype
	929	m_c0	notype
	930	scale_c0	notype
	931	i(i_c0)	current
	932	p_c0	notype
	933	sens_dc_c0	notype
	934	sens_real_c0	notype
	935	sens_imag_c0	notype
	936	sens_mag_c0	notype
	937	sens_ph_c0	notype
	938	sens_cplx_c0	notype
	939	capacitance_c1	notype
	940	cap_c1	notype
	941	c_c1	notype
	942	ic_c1	notype
	943	temp_c1	notype
	944	dtemp_c1	notype
	945	w_c1	notype
	946	l_c1	notype
	947	m_c1	notype
	948	scale_c1	notype
	949	i(i_c1)	current
	950	p_c1	notype
	951	sens_dc_c1	notype
	952	sens_real_c1	notype
	953	sens_imag_c1	notype
	954	sens_mag_c1	notype
	955	sens_ph_c1	notype
	956	sens_cplx_c1	notype
Values:
 0	1.800000000000000e+00
	1.599348750987968e-05
	5.795236643833855e-05
	3.942913065849911e-07
	4.523871729381095e-02
	9.920609504225273e-01
	2.999960814806487e-06
	-3.918415808353157e-11
	3.143645344039214e-22
	5.000000000418596e-11
	6.418115492474501e-11
	1.035634955477494e-15
	0.000000000000000e+00
	0.000000000000000e+00
	0.000000000000000e+00
	0.000000000000000e+00
	0.000000000000000e+00
	0.000000000000000e+00
	9.796830013897306e-12
	7.736831616980739e-01
	7.736831616980739e-01
	5.906560558391613e-13
	-3.173412659141124e-13
	7.730033382067359e-16
	-3.015023104326193e-13
	1.279467782817642e-16
	-5.806196147158807e-14
	-1.157404575566894e-13
	-3.322345316017628e-16
	1.502377807043175e-13
	-1.734132878498526e-13
	-5.687155848867373e-16
	2.251654466813829e-13
	-2.740877932632557e-13
	-3.416508861602637e-14
	-5.118344324664354e-14
	3.594363251259256e-13
	7.212554693622396e-14
	6.316962831029822e-14
	1.655591459698517e-05
	6.000377514051193e-05
	3.686835366380889e-07
	4.526665614871925e-02
	9.910629873434783e-01
	3.112602537559985e-06
	-5.400763576312452e-11
	4.342588511008216e-22
	5.000000000000093e-11
	6.418115492549637e-11
	6.280919896947783e-14
	8.830198660448662e-38
	0.000000000000000e+00
	0.000000000000000e+00
	0.000000000000000e+00
	0.000000000000000e+00
	0.000000000000000e+00
	1.353295253636588e-11
	7.736831616980739e-01
	1.070152715296261e+00
	5.920543506457053e-13
	-3.191043341744861e-13
	8.051019158970339e-16
	-3.013345744463660e-13
	1.457140297971173e-16
	-5.834256935287429e-14
	-1.163292286859790e-13
	-3.694983151954493e-16
	1.510227182282332e-13
	-1.743905475133603e-13
	-5.813176304987019e-16
	2.264241852991272e-13
	-2.737551183871163e-13
	-3.432399122705871e-14
	-5.145232015526819e-14
	3.595314297694431e-13
	6.417024552694656e-14
	6.316962831039510e-14
	1.655591459698517e-05
	6.000377514051193e-05
	3.686835366380888e-07
	4.526665614871925e-02
	9.910629873434783e-01
	3.112602537559986e-06
	-5.400763576312458e-11
	4.342588511008216e-22
	5.000000000000093e-11
	6.418115492549637e-11
	6.280919896947859e-14
	8.830198660452772e-38
	0.000000000000000e+00
	0.000000000000000e+00
	0.000000000000000e+00
	0.000000000000000e+00
	0.000000000000000e+00
	1.353295253636588e-11
	7.736831616980739e-01
	1.070152715296263e+00
	5.920543506457053e-13
	-3.191043341744861e-13
	8.051019158970340e-16
	-3.013345744463660e-13
	1.457140297971173e-16
	-5.834256935287429e-14
	-1.163292286859790e-13
	-3.694983151954494e-16
	1.510227182282332e-13
	-1.743905475133603e-13
	-5.813176304987020e-16
	2.264241852991272e-13
	-2.737551183871163e-13
	-3.432399122705869e-14
	-5.145232015526823e-14
	3.595314297694431e-13
	6.417024552694651e-14
	6.316962831039510e-14
	1.625967720223028e-05
	5.892296255516394e-05
	3.800972773508887e-07
	4.525161856954803e-02
	9.915981204727715e-01
	3.053141057024849e-06
	-4.605891084122730e-11
	3.696302153244346e-22
	5.000000000008476e-11
	6.418115492509136e-11
	9.684955275202469e-15
	1.244172873564145e-53
	0.000000000000000e+00
	0.000000000000000e+00
	0.000000000000000e+00
	0.000000000000000e+00
	0.000000000000000e+00
	1.151900796969585e-11
	7.736831616980739e-01
	9.111782168533951e-01
	5.912966591648636e-13
	-3.181530056941530e-13
	7.922047492116527e-16
	-3.014290427604379e-13
	1.388561365061601e-16
	-5.818864201044802e-14
	-1.160039888677853e-13
	-3.550289991511127e-16
	1.505947456699456e-13
	-1.738636275366406e-13
	-5.760318865667000e-16
	2.257469020346555e-13
	-2.739358582199223e-13
	-3.423572780300918e-14
	-5.130724261144828e-14
	3.594788286343798e-13
	6.819504696845314e-14
	6.316962831034288e-14
	5.853854156496875e-05
	2.120349014599498e-04
	2.701184829710709e-06
	4.518660939031068e-02
	9.939664661493827e-01
	1.093372539789042e-05
	-4.351499620440270e-11
	3.490945310602455e-22
	2.001572554259345e-10
	2.567246196932876e-10
	5.856136538865883e-25
	0.000000000000000e+00
	0.000000000000000e+00
	0.000000000000000e+00
	0.000000000000000e+00
	0.000000000000000e+00
	0.000000000000000e+00
	2.720268454936559e-12
	7.736831616980739e-01
	2.076027036344104e-01
	2.358166515577635e-12
	-1.256251144958462e-12
	-4.913665873089153e-15
	-1.203474472947897e-12
	-4.423140355290606e-15
	-2.304251430758220e-13
	-4.662598245175907e-13
	8.665749996822406e-15
	5.955211613435008e-13
	-6.884322181121479e-13
	6.710562315573540e-16
	8.911551266907832e-13
	-1.097001704746084e-12
	-1.379270868227325e-13
	-2.033939648101926e-13
	1.438322756379009e-12
	3.797423504645691e-13
	2.526785132404590e-13
	7.475651641140711e-06
	2.710755796310723e-05
	1.796497468876075e-07
	4.440067468811332e-02
	9.922021178127334e-01
	1.277576552865028e-06
	-3.708729528163385e-11
	2.974912538533658e-22
	5.000000001375188e-11
	6.418115492463928e-11
	1.926767294708892e-16
	0.000000000000000e+00
	0.000000000000000e+00
	0.000000000000000e+00
	0.000000000000000e+00
	0.000000000000000e+00
	0.000000000000000e+00
	9.271028389434832e-12
	7.317459056655535e-01
	7.317459056655535e-01
	5.400598269152324e-13
	-2.449584876600212e-13
	5.899839994232239e-16
	-3.153109125871937e-13
	1.038287210911425e-16
	-4.787768956921615e-14
	-8.996626827129903e-14
	-2.531530142884450e-16
	1.171987695051853e-13
	-1.347826460567396e-13
	-4.406597062259214e-16
	1.756374077240520e-13
	-2.956913232546345e-13
	-2.697934821959787e-14
	-4.041410196108645e-14
	3.630847734353187e-13
	7.341999764285711e-14
	6.316962831028460e-14
	7.523226973421658e-06
	2.728094540270725e-05
	1.770695827918794e-07
	4.440289619556652e-02
	9.920379707727666e-01
	1.286272635167909e-06
	-3.952549167845030e-11
	3.170580464839645e-22
	5.000000000344912e-11
	6.418115492476191e-11
	5.129666122772915e-16
	0.000000000000000e+00
	0.000000000000000e+00
	0.000000000000000e+00
	0.000000000000000e+00
	0.000000000000000e+00
	0.000000000000000e+00
	9.880762874558968e-12
	7.317459056655535e-01
	7.805098335961413e-01
	5.402458218290778e-13
	-2.451966592289538e-13
	5.972578572039069e-16
	-3.152881110091947e-13
	1.080519816591572e-16
	-4.791762109170500e-14
	-9.004181244561722e-14
	-2.619325504138599e-16
	1.173035985674950e-13
	-1.349158983742659e-13
	-4.433772884492043e-16
	1.758106817531638e-13
	-2.956464204573280e-13
	-2.699985357146391e-14
	-4.045140609044866e-14
	3.630976801192405e-13
	7.191930569845226e-14
	6.316962831030041e-14
	1.658017116055391e-05
	6.009230243066022e-05
	3.679112949826015e-07
	4.526791560953423e-02
	9.910183769829238e-01
	3.117483412665364e-06
	-5.467026617282979e-11
	4.397170405567863e-22
	5.000000000000064e-11
	6.418115492553058e-11
	7.162778656602348e-14
	6.189350014108292e-36
	0.000000000000000e+00
	0.000000000000000e+00
	0.000000000000000e+00
	0.000000000000000e+00
	0.000000000000000e+00
	1.370281665913353e-11
	7.736831616980739e-01
	1.083405323490783e+00
	5.921180612874369e-13
	-3.191840921889939e-13
	8.059219474907733e-16
	-3.013263980160326e-13
	1.461278555049669e-16
	-5.835565270535905e-14
	-1.163569828146610e-13
	-3.703780162869696e-16
	1.510589150305738e-13
	-1.744346804567434e-13
	-5.816717867087707e-16
	2.264808298637791e-13
	-2.737398910459339e-13
	-3.433155419962575e-14
	-5.146447762032700e-14
	3.595359228658867e-13
	6.385686885983410e-14
	6.316962831039950e-14
	2.597720492163572e-05
	9.508540488168830e-05
	5.572110989984777e-07
	5.183625583561640e-02
	9.896009600867437e-01
	5.472369301190924e-06
	-2.111346482351424e-11
	1.900766211093696e-22
	1.500000000000000e-11
	1.925434647802366e-11
	1.289883762321296e-12
	2.564554627760418e-22
	0.000000000000000e+00
	0.000000000000000e+00
	0.000000000000000e+00
	0.000000000000000e+00
	0.000000000000000e+00
	1.974420626993378e-11
	8.725161264283370e-01
	1.397564321612678e+00
	2.133966758678138e-13
	-1.526225186926610e-13
	3.920918735444248e-16
	-7.642462234271641e-14
	6.199511920962071e-17
	-2.382176685282182e-14
	-5.480085382360596e-14
	-1.789101700314554e-16
	7.059085977571624e-14
	-8.217119970149146e-14
	-2.751768227225901e-16
	1.058534257697666e-13
	-6.116624904869724e-14
	-1.561109578207884e-14
	-2.340704924555254e-14
	1.001843940763286e-13
	1.622319451862758e-14
	1.789806135465757e-14
	2.592630072606215e-05
	9.489685603170529e-05
	5.560638340207206e-07
	5.182200282309384e-02
	9.895993073971824e-01
	5.461354796386348e-06
	-2.112082940663437e-11
	1.901621193844960e-22
	1.500000000000000e-11
	1.925434647802420e-11
	1.291148613858732e-12
	2.685126825362340e-22
	0.000000000000000e+00
	0.000000000000000e+00
	0.000000000000000e+00
	0.000000000000000e+00
	0.000000000000000e+00
	1.975286600952586e-11
	8.723972963655896e-01
	1.398055293820703e+00
	2.133366436040402e-13
	-1.525421879936236e-13
	3.918878822299748e-16
	-7.643443347591458e-14
	6.197668616408494e-17
	-2.381361710840480e-14
	-5.477290060608136e-14
	-1.788261550781112e-16
	7.055545173243253e-14
	-8.212930952204428e-14
	-2.750384133159485e-16
	1.058003533695959e-13
	-6.118634349264655e-14
	-1.560372497127306e-14
	-2.339600543423570e-14
	1.001860738981553e-13
	1.622058601135323e-14
	1.789806135465764e-14
	1.592247217800228e-05
	5.775936614933211e-05
	3.375885860853313e-07
	4.553876299789886e-02
	9.890386037499763e-01
	3.046396845021876e-06
	-6.460044599001786e-11
	5.250818935209622e-22
	4.900000000000000e-11
	6.289753182761004e-11
	4.259879115576488e-13
	7.469133933789182e-22
	0.000000000000000e+00
	0.000000000000000e+00
	0.000000000000000e+00
	0.000000000000000e+00
	0.000000000000000e+00
	1.669686611194265e-11
	7.805098335961413e-01
	1.308376448817182e+00
	4.935628811521848e-13
	-2.744012243717170e-13
	6.995022247072121e-16
	-2.438655217335768e-13
	1.277509572738631e-16
	-4.951762136104321e-14
	-9.990271934411547e-14
	-3.257316526758133e-16
	1.295938808737257e-13
	-1.497946400744926e-13
	-5.015215293052619e-16
	1.943249648590345e-13
	-2.198611590051750e-13
	-2.936542987693444e-14
	-4.402880325523676e-14
	2.932553921373462e-13
	4.817952178437807e-14
	5.159895538785799e-14
	2.010348293369543e-04
	7.283533666387292e-04
	4.484810159619003e-06
	4.545014096318022e-02
	9.916411261069485e-01
	3.823036843070683e-05
	-5.341582267140431e-10
	4.298613376363392e-21
	4.900000000000069e-10
	6.289753182701332e-10
	8.493135989687382e-13
	2.819822943382586e-36
	0.000000000000000e+00
	0.000000000000000e+00
	0.000000000000000e+00
	0.000000000000000e+00
	0.000000000000000e+00
	1.366973201299970e-11
	7.805098335961413e-01
	1.080118830062747e+00
	6.539238104738745e-12
	-3.604592794574103e-12
	9.102855368909793e-15
	-3.258812997716127e-12
	1.631870786767317e-15
	-6.524815285838602e-13
	-1.312629228228492e-12
	-4.173999516669859e-15
	1.703318465752463e-12
	-1.967795878794127e-12
	-6.560726639007251e-15
	2.553755857405500e-12
	-2.943748165533552e-12
	-3.865152380073018e-13
	-5.793992519723656e-13
	3.909662655513219e-12
	6.961733335398487e-13
	6.878470638243405e-13
	7.710987737158484e-06
	3.523695343367457e-05
	1.459400524870077e-07
	1.620009671451124e-01
	5.822044457133331e-01
	3.112653648615718e-06