Title: test opamp tran
Date: Tue May 20 10:40:33  2025
Plotname: Transient Analysis
Flags: real
No. Variables: 3
No. Points: 481
Variables:
	0	time	time
	1	v(vout3)	voltage
	2	v(visr)	voltage
Values:
 0	0.000000000000000e+00
	2.998902432759678e-01
	3.000000000000000e-01

 1	1.000000000000000e-08
	2.998902431186001e-01
	3.000000000000000e-01

 2	2.000000000000000e-08
	2.998902430181158e-01
	3.000000000000000e-01

 3	4.000000000000000e-08
	2.998902428999284e-01
	3.000000000000000e-01

 4	8.000000000000000e-08
	2.998902432375956e-01
	3.000000000000000e-01

 5	1.600000000000000e-07
	2.998902431146069e-01
	3.000000000000000e-01

 6	3.200000000000000e-07
	2.998902432564640e-01
	3.000000000000000e-01

 7	6.400000000000000e-07
	2.998902431976160e-01
	3.000000000000000e-01

 8	1.000000000000000e-06
	2.998902429074293e-01
	3.000000000000000e-01

 9	1.000000100000000e-06
	2.999573177479812e-01
	3.199999999878466e-01

 10	1.000000300000000e-06
	3.000765929777528e-01
	3.600000000058914e-01

 11	1.000000700000000e-06
	3.003170070264668e-01
	4.399999999996294e-01

 12	1.000001000000000e-06
	3.005004571974556e-01
	5.000000000000000e-01

 13	1.000001080000000e-06
	3.005083498429908e-01
	5.000000000000000e-01

 14	1.000001240000000e-06
	3.005243859424384e-01
	5.000000000000000e-01

 15	1.000001560000000e-06
	3.005362207416810e-01
	5.000000000000000e-01

 16	1.000002200000000e-06
	3.005352236078448e-01
	5.000000000000000e-01

 17	1.000003480000000e-06
	3.005361355259680e-01
	5.000000000000000e-01

 18	1.000006040000000e-06
	3.005353713641186e-01
	5.000000000000000e-01

 19	1.000011160000000e-06
	3.005365415932918e-01
	5.000000000000000e-01

 20	1.000021400000001e-06
	3.005363251238836e-01
	5.000000000000000e-01

 21	1.000041880000001e-06
	3.005384406945024e-01
	5.000000000000000e-01

 22	1.000082840000002e-06
	3.005401038503183e-01
	5.000000000000000e-01

 23	1.000164760000004e-06
	3.005458687067233e-01
	5.000000000000000e-01

 24	1.000328600000009e-06
	3.005544033893147e-01
	5.000000000000000e-01

 25	1.000656280000018e-06
	3.005717918754576e-01
	5.000000000000000e-01

 26	1.001311640000036e-06
	3.005929891146070e-01
	5.000000000000000e-01

 27	1.002622360000072e-06
	3.005933651261757e-01
	5.000000000000000e-01

 28	1.005243800000145e-06
	3.005413574480548e-01
	5.000000000000000e-01

 29	1.010486680000290e-06
	3.009391434051930e-01
	5.000000000000000e-01

 30	1.018152030839535e-06
	3.024066602158378e-01
	5.000000000000000e-01

 31	1.026750028962364e-06
	3.045529387997332e-01
	5.000000000000000e-01

 32	1.040327773994135e-06
	3.089375561162659e-01
	5.000000000000000e-01

 33	1.067483264057677e-06
	3.174237270211226e-01
	5.000000000000000e-01

 34	1.121794244184762e-06
	3.306543382389032e-01
	5.000000000000000e-01

 35	1.230416204438931e-06
	3.556103385532003e-01
	5.000000000000000e-01

 36	1.443877561327381e-06
	4.199519418489230e-01
	5.000000000000000e-01

 37	1.497242900549494e-06
	4.388101994931810e-01
	5.000000000000000e-01

 38	1.603973578993718e-06
	4.772779613789053e-01
	5.000000000000000e-01

 39	1.712392555371683e-06
	5.087262389063532e-01
	5.000000000000000e-01

 40	1.837720285977114e-06
	5.177310617619288e-01
	5.000000000000000e-01

 41	1.953428019304511e-06
	5.090581260514531e-01
	5.000000000000000e-01

 42	2.147819847413771e-06
	5.039337098096881e-01
	5.000000000000000e-01

 43	2.426563583003608e-06
	5.056695909812867e-01
	5.000000000000000e-01

 44	2.984051054183283e-06
	5.024399359069605e-01
	5.000000000000000e-01

 45	3.559780307189098e-06
	5.024987726831651e-01
	5.000000000000000e-01

 46	4.559780307189097e-06
	5.005608822612431e-01
	5.000000000000000e-01

 47	5.559780307189097e-06
	5.007895768124362e-01
	5.000000000000000e-01

 48	6.559780307189097e-06
	4.998701743190412e-01
	5.000000000000000e-01

 49	7.559780307189097e-06
	5.003234017797542e-01
	5.000000000000000e-01

 50	8.559780307189096e-06
	4.997225988952350e-01
	5.000000000000000e-01

 51	9.559780307189097e-06
	5.001657577349001e-01
	5.000000000000000e-01

 52	1.055978030718910e-05
	4.997288189571440e-01
	5.000000000000000e-01

 53	1.155978030718910e-05
	5.000782407584947e-01
	5.000000000000000e-01

 54	1.255978030718910e-05
	4.997511377781234e-01
	5.000000000000000e-01

 55	1.355978030718910e-05
	5.000235321371633e-01
	5.000000000000000e-01

 56	1.455978030718910e-05
	4.997795967157461e-01
	5.000000000000000e-01

 57	1.555978030718910e-05
	4.999846263769705e-01
	5.000000000000000e-01

 58	1.655978030718910e-05
	4.998054341255735e-01
	5.000000000000000e-01

 59	1.755978030718910e-05
	4.999552826206282e-01
	5.000000000000000e-01

 60	1.855978030718910e-05
	4.998269821331374e-01
	5.000000000000000e-01

 61	1.955978030718910e-05
	4.999325870781308e-01
	5.000000000000000e-01

 62	2.055978030718910e-05
	4.998444268959130e-01
	5.000000000000000e-01

 63	2.155978030718910e-05
	4.999148871860934e-01
	5.000000000000000e-01

 64	2.255978030718910e-05
	4.998583534093379e-01
	5.000000000000000e-01

 65	2.355978030718911e-05
	4.999011011458161e-01
	5.000000000000000e-01

 66	2.455978030718911e-05
	4.998693434846346e-01
	5.000000000000000e-01

 67	2.555978030718911e-05
	4.998904493734131e-01
	5.000000000000000e-01

 68	2.655978030718911e-05
	4.998778940504063e-01
	5.000000000000000e-01

 69	2.755978030718911e-05
	4.998823399292973e-01
	5.000000000000000e-01

 70	2.855978030718911e-05
	4.998844171266914e-01
	5.000000000000000e-01

 71	2.955978030718911e-05
	4.998763063435057e-01
	5.000000000000000e-01

 72	3.055978030718911e-05
	4.998892547753675e-01
	5.000000000000000e-01

 73	3.155978030718910e-05
	4.998719674938581e-01
	5.000000000000000e-01

 74	3.255978030718910e-05
	4.998926975846401e-01
	5.000000000000000e-01

 75	3.355978030718910e-05
	4.998690050597117e-01
	5.000000000000000e-01

 76	3.455978030718909e-05
	4.998950010175718e-01
	5.000000000000000e-01

 77	3.555978030718909e-05
	4.998671477764725e-01
	5.000000000000000e-01

 78	3.655978030718909e-05
	4.998963845695699e-01
	5.000000000000000e-01

 79	3.755978030718909e-05
	4.998661656491021e-01
	5.000000000000000e-01

 80	3.855978030718908e-05
	4.998970391484749e-01
	5.000000000000000e-01

 81	3.955978030718908e-05
	4.998658667624920e-01
	5.000000000000000e-01

 82	4.055978030718908e-05
	4.998971275858310e-01
	5.000000000000000e-01

 83	4.155978030718908e-05
	4.998660853474863e-01
	5.000000000000000e-01

 84	4.255978030718907e-05
	4.998967899406730e-01
	5.000000000000000e-01

 85	4.355978030718907e-05
	4.998666852966582e-01
	5.000000000000000e-01

 86	4.455978030718907e-05
	4.998961439383338e-01
	5.000000000000000e-01

 87	4.555978030718906e-05
	4.998675558827397e-01
	5.000000000000000e-01

 88	4.655978030718906e-05
	4.998952846503435e-01
	5.000000000000000e-01

 89	4.755978030718906e-05
	4.998686035684790e-01
	5.000000000000000e-01

 90	4.855978030718906e-05
	4.998942930290535e-01
	5.000000000000000e-01

 91	4.955978030718905e-05
	4.998697570356547e-01
	5.000000000000000e-01

 92	5.055978030718905e-05
	4.998932276423913e-01
	5.000000000000000e-01

 93	5.155978030718905e-05
	4.998709612706220e-01
	5.000000000000000e-01

 94	5.255978030718904e-05
	4.998921359912190e-01
	5.000000000000000e-01

 95	5.355978030718904e-05
	4.998721727038886e-01
	5.000000000000000e-01

 96	5.455978030718904e-05
	4.998910569826618e-01
	5.000000000000000e-01

 97	5.555978030718904e-05
	4.998733579973071e-01
	5.000000000000000e-01

 98	5.655978030718903e-05
	4.998900153588870e-01
	5.000000000000000e-01

 99	5.755978030718903e-05
	4.998744945746560e-01
	5.000000000000000e-01

 100	5.855978030718903e-05
	4.998890315350641e-01
	5.000000000000000e-01

 101	5.955978030718902e-05
	4.998755646287945e-01
	5.000000000000000e-01

 102	6.055978030718902e-05
	4.998881177774432e-01
	5.000000000000000e-01

 103	6.155978030718902e-05
	4.998765607657165e-01
	5.000000000000000e-01

 104	6.255978030718902e-05
	4.998872779460455e-01
	5.000000000000000e-01

 105	6.355978030718901e-05
	4.998774784477475e-01
	5.000000000000000e-01

 106	6.455978030718901e-05
	4.998865170657940e-01
	5.000000000000000e-01

 107	6.555978030718901e-05
	4.998783129262925e-01
	5.000000000000000e-01

 108	6.655978030718901e-05
	4.998858376209685e-01
	5.000000000000000e-01

 109	6.755978030718900e-05
	4.998790661961112e-01
	5.000000000000000e-01

 110	6.855978030718900e-05
	4.998852339330262e-01
	5.000000000000000e-01

 111	6.955978030718900e-05
	4.998797406372224e-01
	5.000000000000000e-01

 112	7.055978030718899e-05
	4.998847055326354e-01
	5.000000000000000e-01

 113	7.155978030718899e-05
	4.998803406486625e-01
	5.000000000000000e-01

 114	7.255978030718899e-05
	4.998842453086036e-01
	5.000000000000000e-01

 115	7.355978030718899e-05
	4.998808713216651e-01
	5.000000000000000e-01

 116	7.455978030718898e-05
	4.998838493455275e-01
	5.000000000000000e-01

 117	7.555978030718898e-05
	4.998813375864821e-01
	5.000000000000000e-01

 118	7.655978030718898e-05
	4.998835111953115e-01
	5.000000000000000e-01

 119	7.755978030718897e-05
	4.998817440976540e-01
	5.000000000000000e-01

 120	7.855978030718897e-05
	4.998832275854215e-01
	5.000000000000000e-01

 121	7.955978030718897e-05
	4.998820981920045e-01
	5.000000000000000e-01

 122	8.055978030718897e-05
	4.998829886410598e-01
	5.000000000000000e-01

 123	8.155978030718896e-05
	4.998824047208175e-01
	5.000000000000000e-01

 124	8.255978030718896e-05
	4.998827931075869e-01
	5.000000000000000e-01

 125	8.355978030718896e-05
	4.998826688843612e-01
	5.000000000000000e-01

 126	8.455978030718895e-05
	4.998826329297397e-01
	5.000000000000000e-01

 127	8.555978030718895e-05
	4.998828952131591e-01
	5.000000000000000e-01

 128	8.655978030718895e-05
	4.998825058663841e-01
	5.000000000000000e-01

 129	8.755978030718895e-05
	4.998830879239675e-01
	5.000000000000000e-01

 130	8.855978030718894e-05
	4.998824056546647e-01
	5.000000000000000e-01

 131	8.955978030718894e-05
	4.998832538361913e-01
	5.000000000000000e-01

 132	9.055978030718894e-05
	4.998823284175873e-01
	5.000000000000000e-01

 133	9.155978030718894e-05
	4.998833935322629e-01
	5.000000000000000e-01

 134	9.255978030718893e-05
	4.998822719669656e-01
	5.000000000000000e-01

 135	9.355978030718893e-05
	4.998835128451702e-01
	5.000000000000000e-01

 136	9.455978030718893e-05
	4.998822307195250e-01
	5.000000000000000e-01

 137	9.555978030718892e-05
	4.998836133499043e-01
	5.000000000000000e-01

 138	9.655978030718892e-05
	4.998822061231776e-01
	5.000000000000000e-01

 139	9.755978030718892e-05
	4.998836968086557e-01
	5.000000000000000e-01

 140	9.855978030718892e-05
	4.998821916156280e-01
	5.000000000000000e-01

 141	9.955978030718891e-05
	4.998837686506161e-01
	5.000000000000000e-01

 142	1.005597803071889e-04
	4.998821856323032e-01
	5.000000000000000e-01

 143	1.015597803071889e-04
	4.998838294087349e-01
	5.000000000000000e-01

 144	1.025597803071889e-04
	4.998821887384595e-01
	5.000000000000000e-01

 145	1.035597803071889e-04
	4.998838796228671e-01
	5.000000000000000e-01

 146	1.045597803071889e-04
	4.998821969193246e-01
	5.000000000000000e-01

 147	1.055597803071889e-04
	4.998839216786000e-01
	5.000000000000000e-01

 148	1.065597803071889e-04
	4.998822119983835e-01
	5.000000000000000e-01

 149	1.075597803071889e-04
	4.998839564955835e-01
	5.000000000000000e-01

 150	1.085597803071889e-04
	4.998822302173587e-01
	5.000000000000000e-01

 151	1.095597803071889e-04
	4.998839855399160e-01
	5.000000000000000e-01

 152	1.105597803071889e-04
	4.998822502971270e-01
	5.000000000000000e-01

 153	1.115597803071889e-04
	4.998840111252545e-01
	5.000000000000000e-01

 154	1.125597803071889e-04
	4.998822733894006e-01
	5.000000000000000e-01

 155	1.135597803071889e-04
	4.998840315290589e-01
	5.000000000000000e-01

 156	1.145597803071889e-04
	4.998822976146455e-01
	5.000000000000000e-01

 157	1.155597803071889e-04
	4.998840483962190e-01
	5.000000000000000e-01

 158	1.165597803071889e-04
	4.998823240387773e-01
	5.000000000000000e-01

 159	1.175597803071889e-04
	4.998840615867184e-01
	5.000000000000000e-01

 160	1.185597803071889e-04
	4.998823514530697e-01
	5.000000000000000e-01

 161	1.195597803071889e-04
	4.998840723853410e-01
	5.000000000000000e-01

 162	1.205597803071889e-04
	4.998823789249154e-01
	5.000000000000000e-01

 163	1.215597803071889e-04
	4.998840823067736e-01
	5.000000000000000e-01

 164	1.225597803071888e-04
	4.998824043640373e-01
	5.000000000000000e-01

 165	1.235597803071888e-04
	4.998840911070868e-01
	5.000000000000000e-01

 166	1.245597803071888e-04
	4.998824299010403e-01
	5.000000000000000e-01

 167	1.255597803071888e-04
	4.998840990078828e-01
	5.000000000000000e-01

 168	1.265597803071888e-04
	4.998824555864145e-01
	5.000000000000000e-01

 169	1.275597803071888e-04
	4.998841038964115e-01
	5.000000000000000e-01

 170	1.285597803071888e-04
	4.998824823118946e-01
	5.000000000000000e-01

 171	1.295597803071888e-04
	4.998841068087916e-01
	5.000000000000000e-01

 172	1.305597803071888e-04
	4.998825089669094e-01
	5.000000000000000e-01

 173	1.315597803071888e-04
	4.998841087017709e-01
	5.000000000000000e-01

 174	1.325597803071888e-04
	4.998825349974234e-01
	5.000000000000000e-01

 175	1.335597803071888e-04
	4.998841098685356e-01
	5.000000000000000e-01

 176	1.345597803071888e-04
	4.998825603499637e-01
	5.000000000000000e-01

 177	1.355597803071888e-04
	4.998841111984416e-01
	5.000000000000000e-01

 178	1.365597803071888e-04
	4.998825832811762e-01
	5.000000000000000e-01

 179	1.375597803071888e-04
	4.998841122580286e-01
	5.000000000000000e-01

 180	1.385597803071888e-04
	4.998826068669022e-01
	5.000000000000000e-01

 181	1.395597803071888e-04
	4.998841114102193e-01
	5.000000000000000e-01

 182	1.405597803071888e-04
	4.998826307817994e-01
	5.000000000000000e-01

 183	1.415597803071888e-04
	4.998841095094488e-01
	5.000000000000000e-01

 184	1.425597803071888e-04
	4.998826542490593e-01
	5.000000000000000e-01

 185	1.435597803071888e-04
	4.998841071236153e-01
	5.000000000000000e-01

 186	1.445597803071888e-04
	4.998826770193805e-01
	5.000000000000000e-01

 187	1.455597803071888e-04
	4.998841043685163e-01
	5.000000000000000e-01

 188	1.465597803071888e-04
	4.998826991299778e-01
	5.000000000000000e-01

 189	1.475597803071888e-04
	4.998841012251773e-01
	5.000000000000000e-01

 190	1.485597803071888e-04
	4.998827206514238e-01
	5.000000000000000e-01

 191	1.495597803071888e-04
	4.998840985572035e-01
	5.000000000000000e-01

 192	1.505597803071888e-04
	4.998827398157952e-01
	5.000000000000000e-01

 193	1.515597803071888e-04
	4.998840959416595e-01
	5.000000000000000e-01

 194	1.525597803071888e-04
	4.998827588140407e-01
	5.000000000000000e-01

 195	1.535597803071888e-04
	4.998840935171858e-01
	5.000000000000000e-01

 196	1.545597803071888e-04
	4.998827777441668e-01
	5.000000000000000e-01

 197	1.555597803071888e-04
	4.998840890694121e-01
	5.000000000000000e-01

 198	1.565597803071888e-04
	4.998827975696696e-01
	5.000000000000000e-01

 199	1.575597803071888e-04
	4.998840835206371e-01
	5.000000000000000e-01

 200	1.585597803071887e-04
	4.998828172549805e-01
	5.000000000000000e-01

 201	1.595597803071887e-04
	4.998840777273965e-01
	5.000000000000000e-01

 202	1.605597803071887e-04
	4.998828363058869e-01
	5.000000000000000e-01

 203	1.615597803071887e-04
	4.998840727667264e-01
	5.000000000000000e-01

 204	1.625597803071887e-04
	4.998828529104538e-01
	5.000000000000000e-01

 205	1.635597803071887e-04
	4.998840681431305e-01
	5.000000000000000e-01

 206	1.645597803071887e-04
	4.998828702097913e-01
	5.000000000000000e-01

 207	1.655597803071887e-04
	4.998840621284446e-01
	5.000000000000000e-01

 208	1.665597803071887e-04
	4.998828870550347e-01
	5.000000000000000e-01

 209	1.675597803071887e-04
	4.998840573018872e-01
	5.000000000000000e-01

 210	1.685597803071887e-04
	4.998829031180703e-01
	5.000000000000000e-01

 211	1.695597803071887e-04
	4.998840511530225e-01
	5.000000000000000e-01

 212	1.705597803071887e-04
	4.998829198812029e-01
	5.000000000000000e-01

 213	1.715597803071887e-04
	4.998840450120252e-01
	5.000000000000000e-01

 214	1.725597803071887e-04
	4.998829347897846e-01
	5.000000000000000e-01

 215	1.735597803071887e-04
	4.998840391507817e-01
	5.000000000000000e-01

 216	1.745597803071887e-04
	4.998829504229001e-01
	5.000000000000000e-01

 217	1.755597803071887e-04
	4.998840321056042e-01
	5.000000000000000e-01

 218	1.765597803071887e-04
	4.998829664037228e-01
	5.000000000000000e-01

 219	1.775597803071887e-04
	4.998840246414307e-01
	5.000000000000000e-01

 220	1.785597803071887e-04
	4.998829820330313e-01
	5.000000000000000e-01

 221	1.795597803071887e-04
	4.998840172288856e-01
	5.000000000000000e-01

 222	1.805597803071887e-04
	4.998829971098120e-01
	5.000000000000000e-01

 223	1.815597803071887e-04
	4.998840099251245e-01
	5.000000000000000e-01

 224	1.825597803071887e-04
	4.998830116872517e-01
	5.000000000000000e-01

 225	1.835597803071887e-04
	4.998840026744051e-01
	5.000000000000000e-01

 226	1.845597803071887e-04
	4.998830258399387e-01
	5.000000000000000e-01

 227	1.855597803071887e-04
	4.998839954421324e-01
	5.000000000000000e-01

 228	1.865597803071887e-04
	4.998830387385933e-01
	5.000000000000000e-01

 229	1.875597803071887e-04
	4.998839900134748e-01
	5.000000000000000e-01

 230	1.885597803071887e-04
	4.998830508232586e-01
	5.000000000000000e-01

 231	1.895597803071887e-04
	4.998839842197662e-01
	5.000000000000000e-01

 232	1.905597803071887e-04
	4.998830620251755e-01
	5.000000000000000e-01

 233	1.915597803071887e-04
	4.998839779984152e-01
	5.000000000000000e-01

 234	1.925597803071887e-04
	4.998830746044496e-01
	5.000000000000000e-01

 235	1.935597803071886e-04
	4.998839704329703e-01
	5.000000000000000e-01

 236	1.945597803071886e-04
	4.998830876992657e-01
	5.000000000000000e-01

 237	1.955597803071886e-04
	4.998839625692970e-01
	5.000000000000000e-01

 238	1.965597803071886e-04
	4.998831004662641e-01
	5.000000000000000e-01

 239	1.975597803071886e-04
	4.998839549041671e-01
	5.000000000000000e-01

 240	1.985597803071886e-04
	4.998831127164480e-01
	5.000000000000000e-01

 241	1.995597803071886e-04
	4.998839474568488e-01
	5.000000000000000e-01

 242	2.005597803071886e-04
	4.998831245278810e-01
	5.000000000000000e-01

 243	2.010000010000000e-04
	4.998839344649599e-01
	5.000000000000000e-01

 244	2.010000011000000e-04
	4.998174584800466e-01
	4.799999989957139e-01

 245	2.010000013000000e-04
	4.996903820523912e-01
	4.399999969871417e-01

 246	2.010000017000000e-04
	4.994201035715478e-01
	3.599999983910080e-01

 247	2.010000020000000e-04
	4.992030539758642e-01
	3.000000000000000e-01

 248	2.010000020800000e-04
	4.992092986883988e-01
	3.000000000000000e-01

 249	2.010000022400000e-04
	4.992060717119258e-01
	3.000000000000000e-01

 250	2.010000025600000e-04
	4.991946911640704e-01
	3.000000000000000e-01

 251	2.010000032000000e-04
	4.991958385386142e-01
	3.000000000000000e-01

 252	2.010000044800000e-04
	4.991923171934258e-01
	3.000000000000000e-01

 253	2.010000070399999e-04
	4.991904186484364e-01
	3.000000000000000e-01

 254	2.010000121599999e-04
	4.991815604971430e-01
	3.000000000000000e-01

 255	2.010000223999999e-04
	4.991689182377259e-01
	3.000000000000000e-01

 256	2.010000428799998e-04
	4.991394265254201e-01
	3.000000000000000e-01

 257	2.010000838399996e-04
	4.990876160339621e-01
	3.000000000000000e-01

 258	2.010001657599993e-04
	4.989872619485844e-01
	3.000000000000000e-01

 259	2.010003295999986e-04
	4.988167196692559e-01
	3.000000000000000e-01

 260	2.010006572799973e-04
	4.985862499955486e-01
	3.000000000000000e-01

 261	2.010012615325128e-04
	4.985212524646562e-01
	3.000000000000000e-01

 262	2.010020929052702e-04
	4.985043118305490e-01
	3.000000000000000e-01

 263	2.010029247423615e-04
	4.986146072432260e-01
	3.000000000000000e-01

 264	2.010045884165439e-04
	4.988948440910139e-01
	3.000000000000000e-01

 265	2.010074272671296e-04
	4.992975184757201e-01
	3.000000000000000e-01

 266	2.010130479408457e-04
	4.997991183839535e-01
	3.000000000000000e-01

 267	2.010242892882779e-04
	4.996644699143989e-01
	3.000000000000000e-01

 268	2.010467719831422e-04
	4.961691389504740e-01
	3.000000000000000e-01

 269	2.010917373728710e-04
	4.850705648232941e-01
	3.000000000000000e-01

 270	2.011816681523284e-04
	4.653985699744373e-01
	3.000000000000000e-01

 271	2.013523832827116e-04
	4.349090034328474e-01
	3.000000000000000e-01

 272	2.016938135434781e-04
	3.848425144081133e-01
	3.000000000000000e-01

 273	2.023766740650111e-04
	3.407107591885492e-01
	3.000000000000000e-01

 274	2.033766740650111e-04
	3.085437142499430e-01
	3.000000000000000e-01

 275	2.035016740650111e-04
	3.029139224183172e-01
	3.000000000000000e-01

 276	2.037516740650111e-04
	2.917651479225908e-01
	3.000000000000000e-01

 277	2.042516740650111e-04
	2.702399578135286e-01
	3.000000000000000e-01

 278	2.046852908946067e-04
	2.536136473805937e-01
	3.000000000000000e-01

 279	2.051588719766472e-04
	2.487436647784022e-01
	3.000000000000000e-01

 280	2.052478237531794e-04
	2.530180708612104e-01
	3.000000000000000e-01

 281	2.054257273062438e-04
	2.692617451849346e-01
	3.000000000000000e-01

 282	2.057815344123726e-04
	3.039004635678668e-01
	3.000000000000000e-01

 283	2.060948247856033e-04
	3.005693661401906e-01
	3.000000000000000e-01

 284	2.064178637391451e-04
	2.926385176273859e-01
	3.000000000000000e-01

 285	2.069862385104855e-04
	3.015621889861244e-01
	3.000000000000000e-01

 286	2.075158827483819e-04
	2.971643205709678e-01
	3.000000000000000e-01

 287	2.084371786184230e-04
	2.998694795356520e-01
	3.000000000000000e-01

 288	2.094371786184230e-04
	2.991793380212062e-01
	3.000000000000000e-01

 289	2.104371786184230e-04
	2.995581307545812e-01
	3.000000000000000e-01

 290	2.114371786184230e-04
	3.000353160424329e-01
	3.000000000000000e-01

 291	2.124371786184230e-04
	2.993910566561226e-01
	3.000000000000000e-01

 292	2.134371786184230e-04
	3.003256314658054e-01
	3.000000000000000e-01

 293	2.144371786184230e-04
	2.993684165828285e-01
	3.000000000000000e-01

 294	2.154371786184230e-04
	3.003617512880561e-01
	3.000000000000000e-01

 295	2.164371786184230e-04
	2.994307382447368e-01
	3.000000000000000e-01

 296	2.174371786184230e-04
	3.002984536400237e-01
	3.000000000000000e-01

 297	2.184371786184230e-04
	2.995233469970924e-01
	3.000000000000000e-01

 298	2.194371786184230e-04
	3.002101653420157e-01
	3.000000000000000e-01

 299	2.204371786184230e-04
	2.996133775693319e-01
	3.000000000000000e-01

 300	2.214371786184230e-04
	3.001291904324979e-01
	3.000000000000000e-01

 301	2.224371786184230e-04
	2.996866788031760e-01
	3.000000000000000e-01

 302	2.234371786184230e-04
	3.000660402646336e-01
	3.000000000000000e-01

 303	2.244371786184230e-04
	2.997406095140793e-01
	3.000000000000000e-01

 304	2.254371786184230e-04
	3.000209044965527e-01
	3.000000000000000e-01

 305	2.264371786184230e-04
	2.997780005500541e-01
	3.000000000000000e-01

 306	2.274371786184230e-04
	2.999900434351881e-01
	3.000000000000000e-01

 307	2.284371786184230e-04
	2.998033189234608e-01
	3.000000000000000e-01

 308	2.294371786184230e-04
	2.999690621652247e-01
	3.000000000000000e-01

 309	2.304371786184230e-04
	2.998207127313577e-01
	3.000000000000000e-01

 310	2.314371786184229e-04
	2.999543075838154e-01
	3.000000000000000e-01

 311	2.324371786184229e-04
	2.998332895644085e-01
	3.000000000000000e-01

 312	2.334371786184229e-04
	2.999432397314901e-01
	3.000000000000000e-01

 313	2.344371786184229e-04
	2.998430591330619e-01
	3.000000000000000e-01

 314	2.354371786184229e-04
	2.999343178550689e-01
	3.000000000000000e-01

 315	2.364371786184229e-04
	2.998511636689962e-01
	3.000000000000000e-01

 316	2.374371786184229e-04
	2.999267244576627e-01
	3.000000000000000e-01

 317	2.384371786184229e-04
	2.998581677390642e-01
	3.000000000000000e-01

 318	2.394371786184229e-04
	2.999200895735878e-01
	3.000000000000000e-01

 319	2.404371786184229e-04
	2.998643035290243e-01
	3.000000000000000e-01

 320	2.414371786184229e-04
	2.999142767877641e-01
	3.000000000000000e-01

 321	2.424371786184229e-04
	2.998696484599745e-01
	3.000000000000000e-01

 322	2.434371786184229e-04
	2.999092447000578e-01
	3.000000000000000e-01

 323	2.444371786184229e-04
	2.998742277589832e-01
	3.000000000000000e-01

 324	2.454371786184229e-04
	2.999049741431115e-01
	3.000000000000000e-01

 325	2.464371786184230e-04
	2.998780668319658e-01
	3.000000000000000e-01

 326	2.474371786184230e-04
	2.999014307008585e-01
	3.000000000000000e-01

 327	2.484371786184230e-04
	2.998812085005935e-01
	3.000000000000000e-01

 328	2.494371786184230e-04
	2.998985626782538e-01
	3.000000000000000e-01

 329	2.504371786184231e-04
	2.998837149529940e-01
	3.000000000000000e-01

 330	2.514371786184231e-04
	2.998962972544910e-01
	3.000000000000000e-01

 331	2.524371786184231e-04
	2.998856651257640e-01
	3.000000000000000e-01

 332	2.534371786184231e-04
	2.998911223022458e-01
	3.000000000000000e-01

 333	2.544371786184232e-04
	2.998819472354315e-01
	3.000000000000000e-01

 334	2.554371786184232e-04
	2.998895168629916e-01
	3.000000000000000e-01

 335	2.564371786184232e-04
	2.998837387180433e-01
	3.000000000000000e-01

 336	2.574371786184232e-04
	2.998884897565408e-01
	3.000000000000000e-01

 337	2.584371786184233e-04
	2.998851078732854e-01
	3.000000000000000e-01

 338	2.594371786184233e-04
	2.998878952241564e-01
	3.000000000000000e-01

 339	2.604371786184233e-04
	2.998860097740215e-01
	3.000000000000000e-01

 340	2.614371786184233e-04
	2.998876196546649e-01
	3.000000000000000e-01

 341	2.624371786184234e-04
	2.998865750196869e-01
	3.000000000000000e-01

 342	2.634371786184234e-04
	2.998875637260197e-01
	3.000000000000000e-01

 343	2.644371786184234e-04
	2.998869108338897e-01
	3.000000000000000e-01

 344	2.654371786184234e-04
	2.998876524421163e-01
	3.000000000000000e-01

 345	2.664371786184234e-04
	2.998870931847035e-01
	3.000000000000000e-01

 346	2.674371786184235e-04
	2.998878292007592e-01
	3.000000000000000e-01

 347	2.684371786184235e-04
	2.998871785518875e-01
	3.000000000000000e-01

 348	2.694371786184235e-04
	2.998880555332708e-01
	3.000000000000000e-01

 349	2.704371786184235e-04
	2.998872014440426e-01
	3.000000000000000e-01

 350	2.714371786184236e-04
	2.998883068062261e-01
	3.000000000000000e-01

 351	2.724371786184236e-04
	2.998871884753891e-01
	3.000000000000000e-01

 352	2.734371786184236e-04
	2.998885658855315e-01
	3.000000000000000e-01

 353	2.744371786184236e-04
	2.998871557389824e-01
	3.000000000000000e-01

 354	2.754371786184237e-04
	2.998888219266800e-01
	3.000000000000000e-01

 355	2.764371786184237e-04
	2.998871148102897e-01
	3.000000000000000e-01

 356	2.774371786184237e-04
	2.998890687595739e-01
	3.000000000000000e-01

 357	2.784371786184237e-04
	2.998870735111916e-01
	3.000000000000000e-01

 358	2.794371786184238e-04
	2.998892999235152e-01
	3.000000000000000e-01

 359	2.804371786184238e-04
	2.998870379371230e-01
	3.000000000000000e-01

 360	2.814371786184238e-04
	2.998895135767101e-01
	3.000000000000000e-01

 361	2.824371786184238e-04
	2.998870119467067e-01
	3.000000000000000e-01

 362	2.834371786184239e-04
	2.998897072531719e-01
	3.000000000000000e-01

 363	2.844371786184239e-04
	2.998869970368807e-01
	3.000000000000000e-01

 364	2.854371786184239e-04
	2.998898813398954e-01
	3.000000000000000e-01

 365	2.864371786184239e-04
	2.998869951354810e-01
	3.000000000000000e-01

 366	2.874371786184240e-04
	2.998900333870913e-01
	3.000000000000000e-01

 367	2.884371786184240e-04
	2.998870081258995e-01
	3.000000000000000e-01

 368	2.894371786184240e-04
	2.998901655984685e-01
	3.000000000000000e-01

 369	2.904371786184240e-04
	2.998870337285064e-01
	3.000000000000000e-01

 370	2.914371786184241e-04
	2.998902781364445e-01
	3.000000000000000e-01

 371	2.924371786184241e-04
	2.998870725793974e-01
	3.000000000000000e-01

 372	2.934371786184241e-04
	2.998903735199485e-01
	3.000000000000000e-01

 373	2.944371786184241e-04
	2.998871221656021e-01
	3.000000000000000e-01

 374	2.954371786184242e-04
	2.998904518880510e-01
	3.000000000000000e-01

 375	2.964371786184242e-04
	2.998871834709498e-01
	3.000000000000000e-01

 376	2.974371786184242e-04
	2.998905142711297e-01
	3.000000000000000e-01

 377	2.984371786184242e-04
	2.998872540754534e-01
	3.000000000000000e-01

 378	2.994371786184243e-04
	2.998905638934304e-01
	3.000000000000000e-01

 379	3.004371786184243e-04
	2.998873324344853e-01
	3.000000000000000e-01

 380	3.014371786184243e-04
	2.998906007465854e-01
	3.000000000000000e-01

 381	3.024371786184243e-04
	2.998874181404869e-01
	3.000000000000000e-01

 382	3.034371786184243e-04
	2.998906264159344e-01
	3.000000000000000e-01

 383	3.044371786184244e-04
	2.998875091628437e-01
	3.000000000000000e-01

 384	3.054371786184244e-04
	2.998906440299731e-01
	3.000000000000000e-01

 385	3.064371786184244e-04
	2.998876029140558e-01
	3.000000000000000e-01

 386	3.074371786184244e-04
	2.998906544065381e-01
	3.000000000000000e-01

 387	3.084371786184245e-04
	2.998876992275064e-01
	3.000000000000000e-01

 388	3.094371786184245e-04
	2.998906585109331e-01
	3.000000000000000e-01

 389	3.104371786184245e-04
	2.998877977087695e-01
	3.000000000000000e-01

 390	3.114371786184245e-04
	2.998906567659885e-01
	3.000000000000000e-01

 391	3.124371786184246e-04
	2.998878972836436e-01
	3.000000000000000e-01

 392	3.134371786184246e-04
	2.998906498804264e-01
	3.000000000000000e-01

 393	3.144371786184246e-04
	2.998879970695867e-01
	3.000000000000000e-01

 394	3.154371786184246e-04
	2.998906405724961e-01
	3.000000000000000e-01

 395	3.164371786184247e-04
	2.998880957804382e-01
	3.000000000000000e-01

 396	3.174371786184247e-04
	2.998906277383728e-01
	3.000000000000000e-01

 397	3.184371786184247e-04
	2.998881930847681e-01
	3.000000000000000e-01

 398	3.194371786184247e-04
	2.998906134915165e-01
	3.000000000000000e-01

 399	3.204371786184248e-04
	2.998882889221057e-01
	3.000000000000000e-01

 400	3.214371786184248e-04
	2.998905969632601e-01
	3.000000000000000e-01

 401	3.224371786184248e-04
	2.998883824029022e-01
	3.000000000000000e-01

 402	3.234371786184248e-04
	2.998905804988456e-01
	3.000000000000000e-01

 403	3.244371786184249e-04
	2.998884727726798e-01
	3.000000000000000e-01
